<?xml version="1.0" encoding="UTF-8"?>

<!-- generated on 2026-03-29T18:22:46.482581+07:00 by Eclipse SUMO GUI 1.26.0
<sumoConfiguration xmlns:xsi="http://www.w3.org/2001/XMLSchema-instance" xsi:noNamespaceSchemaLocation="http://sumo.dlr.de/xsd/sumoConfiguration.xsd">

    <input>
        <net-file value="F:\Sumo\tools\2026-03-29-18-19-33\osm.net.xml.gz"/>
        <route-files value="F:\Sumo\tools\2026-03-29-18-19-33\osm.bus.trips.xml,F:\Sumo\tools\2026-03-29-18-19-33\osm.passenger.trips.xml,F:\Sumo\tools\2026-03-29-18-19-33\osm.tram.trips.xml"/>
        <additional-files value="F:\Sumo\tools\2026-03-29-18-19-33\output.add.xml"/>
    </input>

    <output>
        <tripinfo-output value="F:\Sumo\tools\2026-03-29-18-19-33\tripinfos.xml"/>
        <statistic-output value="F:\Sumo\tools\2026-03-29-18-19-33\stats.xml"/>
    </output>

    <processing>
        <ignore-route-errors value="true"/>
        <tls.actuated.jam-threshold value="30"/>
    </processing>

    <routing>
        <device.rerouting.adaptation-steps value="18"/>
        <device.rerouting.adaptation-interval value="10"/>
    </routing>

    <report>
        <verbose value="true"/>
        <duration-log.statistics value="true"/>
        <no-step-log value="true"/>
    </report>

    <gui_only>
        <gui-settings-file value="F:\Sumo\tools\2026-03-29-18-19-33\osm.view.xml"/>
    </gui_only>

</sumoConfiguration>
-->

<meandata xmlns:xsi="http://www.w3.org/2001/XMLSchema-instance" xsi:noNamespaceSchemaLocation="http://sumo.dlr.de/xsd/meandata_file.xsd">
</meandata>
